{
  "questions": [
    {
      "question": "What is the capital of France?",
      "answer": "Paris"
    },
    {
      "question": "Who wrote 'Romeo and Juliet'?",
      "answer": "William Shakespeare"
    },
    {
      "question": "What is the chemical symbol for gold?",
      "answer": "Au"
    },
    {
      "question": "What is the largest planet in our solar system?",
      "answer": "Jupiter"
    },
    {
      "question": "What year did World War II end?",
      "answer": "1945"
    },
    {
      "question": "What is the square root of 64?",
      "answer": "8"
    },
    {
      "question": "Who painted the Mona Lisa?",
      "answer": "Leonardo da Vinci"
    },
    {
      "question": "What is the boiling point of water in Celsius?",
      "answer": "100"
    },
    {
      "question": "Which element has the atomic number 1?",
      "answer": "Hydrogen"
    },
    {
      "question": "What is the tallest mountain in the world?",
      "answer": "Mount Everest"
    }
  ]
}